[Molden Format]
made by pyscf v[2.3.0]
[Atoms] (AU)
C   1   6     0.00000000000000     0.00000000000000     1.14255298135166
O   2   8     0.00000000000000     0.00000000000000    -1.09548557276711
H   3   1     1.74635827267268     0.00000000000000     2.24049141862845
H   4   1    -1.74635827267268     0.00000000000000     2.24049141862845
[GTO]
1 0
 s    8 1.00
                  6665  0.00069157460935191
                  1000  0.0053258203023698
                   228   0.027060198225573
                 64.71    0.10165610694525
                 21.06    0.27457141089662
                 7.495    0.44830027401435
                 2.797    0.28490009675526
                0.5215   0.015194825009933
 s    8 1.00
                  6665  -0.0002932725950551
                  1000  -0.002318091450948
                   228  -0.011499982988023
                 64.71  -0.046826854945498
                 21.06   -0.12846669241389
                 7.495   -0.30126838454198
                 2.797   -0.25563158729151
                0.5215     1.0937924324606
 s    1 1.00
                0.1596                   1
 p    3 1.00
                 9.439   0.056977425220157
                 2.002    0.31321522308969
                0.5456    0.76037062451882
 p    1 1.00
                0.1517                   1
 d    1 1.00
                  0.55                   1

2 0
 s    8 1.00
                 11720  0.00070964460770356
                  1759  0.0054675258872822
                 400.8   0.027823446651045
                 113.7    0.10474737843827
                 37.03    0.28291686541233
                 13.27    0.44849688666277
                 5.025    0.27081910000987
                 1.013   0.015450731397046
 s    8 1.00
                 11720  -0.00031443950051049
                  1759  -0.0024821430850483
                 400.8  -0.012316415460599
                 113.7  -0.050540354883472
                 37.03   -0.13938384804979
                 13.27   -0.32507252749198
                 5.025   -0.22985000902104
                 1.013     1.0953811501031
 s    1 1.00
                0.3023                   1
 p    3 1.00
                  17.7   0.062677449946884
                 3.854    0.33353206540521
                 1.046    0.74124410961349
 p    1 1.00
                0.2753                   1
 d    1 1.00
                 1.185                   1

3 0
 s    3 1.00
                 13.01    0.03349893063435
                 1.962    0.23480204908308
                0.4446    0.81368185793465
 s    1 1.00
                 0.122                   1
 p    1 1.00
                 0.727                   1

4 0
 s    3 1.00
                 13.01    0.03349893063435
                 1.962    0.23480204908308
                0.4446    0.81368185793465
 s    1 1.00
                 0.122                   1
 p    1 1.00
                 0.727                   1

[5d]
[7f]
[9g]

[MO]
 Sym= A
 Ene=        -20.5739
 Spin= Alpha
 Occup=    1.00000
   1           0.000174013
   2           0.000171109
   3            0.00222974
   4                     0
   5                     0
   6           0.000203533
   7                     0
   8            2.1656e-10
   9           -0.00130456
  10          -0.000768204
  11                     0
  12           1.06983e-10
  13            0.00026947
  14                     0
  15               1.00123
  16             0.0017411
  17           -0.00522525
  18                     0
  19           1.28967e-09
  20            0.00185221
  21                     0
  22          -6.06178e-10
  23           -0.00152108
  24           0.000236897
  25                     0
  26            1.1149e-10
  27           0.000195524
  28          -1.44197e-10
  29           -0.00032318
  30           1.34487e-05
  31          -5.27445e-05
  32                     0
  33           0.000335873
  34           -0.00032318
  35           1.34487e-05
  36           5.27445e-05
  37                     0
  38           0.000335873
 Sym= A
 Ene=        -11.3392
 Spin= Alpha
 Occup=    1.00000
   1              -1.00182
   2           -0.00367418
   3            0.00463198
   4          -1.82015e-10
   5          -1.18302e-09
   6           0.000546266
   7                     0
   8           4.74732e-10
   9            0.00133346
  10           -0.00082749
  11                     0
  12                     0
  13          -0.000628037
  14          -7.60496e-10
  15           0.000211476
  16          -0.000525389
  17            0.00160086
  18                     0
  19                     0
  20          -0.000459581
  21                     0
  22                     0
  23            0.00117398
  24          -0.000217319
  25                     0
  26           1.45091e-10
  27             0.0001269
  28           1.42558e-10
  29           0.000324818
  30           -0.00135215
  31          -0.000377302
  32                     0
  33           -0.00025913
  34           0.000324818
  35           -0.00135215
  36           0.000377301
  37           2.05368e-10
  38           -0.00025913
 Sym= A
 Ene=        -1.41718
 Spin= Alpha
 Occup=    1.00000
   1            -0.0170609
   2              0.215259
   3             0.0778743
   4           2.04434e-09
   5           2.32215e-08
   6             -0.192516
   7          -1.56533e-10
   8           1.07313e-08
   9            -0.0143997
  10              0.041221
  11          -7.70058e-10
  12          -6.85077e-09
  13           -0.00955641
  14          -5.83147e-09
  15            -0.0114444
  16              0.406994
  17              0.374204
  18           4.32374e-09
  19           6.24701e-08
  20              0.141912
  21           2.50665e-09
  22           3.57601e-08
  23             0.0339129
  24              0.017681
  25           2.98356e-10
  26           6.48662e-09
  27           0.000284484
  28          -3.42535e-09
  29             0.0413518
  30           -0.00141982
  31           -0.00724894
  32           3.88294e-09
  33           -0.00981427
  34             0.0413518
  35           -0.00141982
  36            0.00724894
  37          -1.47347e-09
  38           -0.00981427
 Sym= A
 Ene=       -0.866147
 Spin= Alpha
 Occup=    1.00000
   1            0.00817329
   2             -0.339184
   3             -0.226078
   4          -2.95329e-09
   5            -3.984e-08
   6             -0.174972
   7          -1.17956e-09
   8           -1.8031e-08
   9            -0.0823392
  10            0.00838109
  11          -1.27442e-10
  12          -3.62523e-09
  13           -0.00639891
  14          -1.06654e-08
  15           0.000686861
  16              0.191713
  17               0.23906
  18           1.54073e-09
  19           1.30945e-08
  20             -0.149547
  21           1.66114e-09
  22           1.15174e-08
  23            -0.0944859
  24           -0.00820467
  25          -1.65566e-10
  26          -1.34084e-09
  27            0.00111214
  28           2.00342e-09
  29             -0.240085
  30            -0.0312426
  31             0.0258168
  32          -2.06964e-09
  33             0.0116471
  34             -0.240085
  35            -0.0312426
  36            -0.0258168
  37          -6.67672e-10
  38             0.0116471
 Sym= A
 Ene=       -0.695063
 Spin= Alpha
 Occup=    1.00000
   1                     0
   2            4.0941e-09
   3           4.19208e-09
   4             -0.398952
   5          -2.26424e-07
   6          -2.49998e-09
   7             -0.125536
   8          -1.46446e-07
   9          -2.30398e-09
  10           4.48554e-10
  11              0.011617
  12          -3.97735e-08
  13          -6.12713e-10
  14          -7.20929e-09
  15          -1.15086e-10
  16          -2.72498e-10
  17          -3.34245e-09
  18             -0.346813
  19           1.21586e-07
  20           5.12222e-09
  21             -0.205486
  22           1.03531e-07
  23           2.42311e-09
  24           3.19809e-10
  25            -0.0208634
  26           2.61753e-09
  27          -2.08372e-10
  28           -5.2577e-09
  29             -0.243775
  30            -0.0694842
  31             0.0157439
  32                     0
  33              0.010452
  34              0.243775
  35             0.0694842
  36             0.0157439
  37          -1.69552e-09
  38             -0.010452
 Sym= A
 Ene=       -0.652322
 Spin= Alpha
 Occup=    1.00000
   1            -0.0116594
   2            -0.0643138
   3             0.0641182
   4           -4.5852e-09
   5           5.64278e-08
   6               0.38043
   7          -1.87122e-09
   8           2.33262e-08
   9             0.0405879
  10            -0.0273516
  11            8.0986e-10
  12           1.77331e-09
  13             0.0105573
  14           1.22633e-08
  15           0.000448851
  16              0.150487
  17              0.292358
  18          -2.37876e-09
  19            2.1906e-08
  20              -0.50365
  21          -6.25443e-10
  22           1.05207e-08
  23             -0.294304
  24            -0.0268465
  25          -6.16178e-10
  26          -3.99141e-09
  27             0.0010329
  28           1.59872e-09
  29              0.122658
  30             0.0548324
  31             -0.012243
  32          -1.21304e-09
  33            0.00392534
  34              0.122658
  35             0.0548324
  36              0.012243
  37           4.94628e-09
  38            0.00392534
 Sym= A
 Ene=       -0.537775
 Spin= Alpha
 Occup=    1.00000
   1          -9.72444e-10
   2           2.36299e-08
   3           2.22256e-08
   4          -8.79669e-08
   5             -0.341453
   6          -1.08588e-08
   7           3.91123e-08
   8             -0.207944
   9          -2.43289e-08
  10           2.53971e-09
  11          -7.30283e-08
  12             0.0560388
  13           7.18051e-09
  14          -6.41794e-10
  15          -2.00349e-10
  16           4.32193e-08
  17           2.08896e-08
  18            3.3097e-07
  19             -0.485631
  20          -2.73964e-08
  21           2.15095e-07
  22             -0.336275
  23          -3.65271e-08
  24           4.70928e-09
  25           1.28688e-08
  26            -0.0308585
  27           9.37049e-09
  28          -4.25654e-10
  29          -1.37983e-07
  30          -1.01798e-07
  31          -8.05632e-10
  32           -0.00939034
  33           3.27453e-09
  34           1.71203e-07
  35            1.5152e-07
  36           1.89296e-10
  37           -0.00939034
  38          -4.21708e-09
 Sym= A
 Ene=       -0.433325
 Spin= Alpha
 Occup=    1.00000
   1           5.69322e-10
   2           3.33447e-09
   3           4.28919e-09
   4             -0.198988
   5           2.49392e-08
   6           3.44133e-09
   7             -0.041852
   8          -2.21413e-08
   9           4.69179e-09
  10          -2.58454e-10
  11            -0.0743582
  12          -6.33083e-08
  13                     0
  14          -8.99828e-10
  15           1.39385e-10
  16          -2.07645e-09
  17           -5.7221e-10
  18              0.538747
  19           3.70671e-07
  20            7.0556e-10
  21              0.417491
  22            3.5363e-07
  23           1.02125e-09
  24                     0
  25             0.0100759
  26           1.53513e-08
  27            3.5501e-10
  28           9.39389e-09
  29             -0.256784
  30             -0.180504
  31            0.00532558
  32           3.63664e-09
  33            0.00882047
  34              0.256784
  35              0.180504
  36            0.00532558
  37           6.36791e-09
  38           -0.00882047
 Sym= A
 Ene=        0.142561
 Spin= Alpha
 Occup=    0.00000
   1          -2.63959e-08
   2           1.57001e-08
   3            6.9377e-07
   4           1.16227e-08
   5              0.396482
   6           -1.6514e-08
   7           3.15247e-07
   8              0.720433
   9          -3.86025e-08
  10          -1.44819e-08
  11          -1.71106e-08
  12             0.0399139
  13          -2.84485e-08
  14           1.62862e-09
  15           1.16704e-08
  16           2.49076e-09
  17          -2.16204e-07
  18           7.68396e-09
  19             -0.375583
  20          -3.91477e-08
  21          -4.17238e-08
  22             -0.529819
  23          -1.05977e-07
  24           6.84412e-09
  25            2.8654e-09
  26            0.00419003
  27           1.43579e-08
  28          -8.16539e-10
  29          -1.90634e-07
  30          -1.01502e-06
  31           5.17749e-09
  32             0.0237051
  33           6.32638e-09
  34           3.40578e-08
  35           3.99423e-07
  36           -1.7345e-09
  37             0.0237051
  38          -4.27787e-09
 Sym= A
 Ene=         0.19227
 Spin= Alpha
 Occup=    0.00000
   1            -0.0603923
   2              0.104392
   3                1.9874
   4           7.12594e-09
   5          -3.57753e-08
   6              0.185729
   7           8.86471e-09
   8          -2.36272e-07
   9              0.582125
  10            0.00612935
  11           1.46764e-10
  12          -8.33326e-10
  13             0.0217646
  14          -7.28425e-09
  15          -0.000996911
  16            0.00106615
  17             0.0178395
  18          -2.45414e-09
  19           7.58355e-08
  20            -0.0565684
  21          -4.19585e-09
  22           1.25479e-07
  23             -0.114897
  24          -6.31183e-05
  25                     0
  26          -1.41036e-09
  27           -0.00325283
  28           6.63353e-10
  29            -0.0359067
  30              -1.39375
  31              0.016228
  32           -1.3824e-09
  33             0.0116069
  34            -0.0359067
  35              -1.39375
  36             -0.016228
  37          -1.25397e-08
  38             0.0116069
 Sym= A
 Ene=        0.260614
 Spin= Alpha
 Occup=    0.00000
   1           7.99909e-10
   2            2.8511e-10
   3          -1.68226e-08
   4              0.354236
   5          -9.65589e-08
   6          -1.86699e-09
   7               1.43776
   8          -3.34154e-07
   9          -1.10615e-08
  10          -9.12408e-10
  11             0.0270633
  12          -1.07213e-08
  13           6.63286e-10
  14           1.89553e-08
  15                     0
  16          -7.96688e-10
  17          -4.84914e-09
  18            -0.0965894
  19           1.49873e-07
  20          -1.43714e-09
  21             -0.310068
  22           2.20071e-07
  23           -1.0212e-09
  24                     0
  25            0.00976262
  26          -2.23197e-09
  27          -1.04334e-10
  28           -3.0108e-09
  29             0.0588559
  30              -1.91862
  31             0.0141996
  32          -1.20682e-08
  33             0.0139552
  34            -0.0588559
  35               1.91862
  36             0.0141996
  37           -2.9528e-09
  38            -0.0139552
 Sym= A
 Ene=         0.36229
 Spin= Alpha
 Occup=    0.00000
   1             0.0376106
   2           -0.00672567
   3              -1.28787
   4           3.48198e-09
   5           1.02768e-07
   6             0.0341525
   7          -9.61149e-09
   8           4.25249e-08
   9               1.75676
  10             -0.028196
  11           4.78778e-10
  12           1.55127e-08
  13           -0.00311381
  14           8.56114e-09
  15            -0.0755181
  16             0.0520588
  17               1.75983
  18           2.27358e-09
  19          -2.09282e-09
  20              0.116034
  21          -2.01139e-09
  22          -1.28191e-07
  23              0.596778
  24             0.0311692
  25           3.38172e-10
  26           8.67521e-09
  27           0.000190718
  28           4.73329e-10
  29            -0.0131418
  30             -0.128171
  31            -0.0143614
  32           7.22122e-09
  33             0.0137757
  34            -0.0131418
  35             -0.128171
  36             0.0143614
  37           1.79338e-08
  38             0.0137757
 Sym= A
 Ene=        0.668102
 Spin= Alpha
 Occup=    0.00000
   1          -3.32215e-07
   2          -5.33997e-07
   3            1.9133e-06
   4           -1.7168e-09
   5              -1.03218
   6           4.32663e-08
   7           1.23346e-07
   8               1.06349
   9           6.55595e-07
  10            4.4576e-08
  11           2.37045e-08
  12             0.0307907
  13          -3.26355e-07
  14          -1.28188e-09
  15          -2.93345e-08
  16          -1.13488e-07
  17          -1.41547e-07
  18           9.14406e-09
  19             0.0174223
  20          -7.16541e-09
  21          -1.42032e-08
  22            -0.0652887
  23          -1.98728e-07
  24          -1.44433e-08
  25           2.71557e-10
  26            -0.0417505
  27          -1.90339e-08
  28           1.05628e-10
  29          -9.78292e-07
  30          -1.83594e-07
  31          -1.29405e-07
  32            -0.0489625
  33           2.14831e-08
  34          -1.19402e-06
  35           1.72127e-07
  36           1.60981e-07
  37            -0.0489625
  38          -6.77164e-09
 Sym= A
 Ene=        0.676599
 Spin= Alpha
 Occup=    0.00000
   1             -0.142456
   2             -0.161025
   3              0.868046
   4          -6.49208e-10
   5           1.35835e-06
   6             0.0255898
   7           2.56702e-08
   8          -1.48277e-06
   9              0.330863
  10            0.00356234
  11          -7.39504e-10
  12          -3.77622e-08
  13             -0.272043
  14          -2.32187e-08
  15            -0.0231344
  16            -0.0984764
  17             -0.089416
  18          -4.78431e-09
  19          -1.65433e-08
  20             -0.039653
  21          -4.22172e-09
  22           1.50943e-07
  23             -0.132316
  24           -0.00482962
  25                     0
  26           5.25718e-08
  27             -0.011168
  28           1.09737e-09
  29             -0.804207
  30              0.219815
  31             -0.123281
  32           5.93644e-08
  33            -0.0123171
  34             -0.804207
  35              0.219815
  36              0.123281
  37           3.08683e-08
  38            -0.0123171
 Sym= A
 Ene=         0.73994
 Spin= Alpha
 Occup=    0.00000
   1          -1.71637e-09
   2           -6.0777e-09
   3          -4.43976e-09
   4               -0.3516
   5          -1.08662e-08
   6           5.22147e-10
   7               2.25918
   8           8.59079e-08
   9           1.61707e-08
  10          -9.57574e-10
  11            -0.0532032
  12          -9.72432e-09
  13            5.9295e-09
  14           4.74968e-08
  15          -9.08144e-10
  16           8.14728e-10
  17           1.89723e-08
  18             -0.308711
  19           2.93331e-09
  20                     0
  21             -0.381252
  22           -3.9755e-08
  23              1.01e-08
  24            4.7595e-10
  25            0.00302628
  26           2.01651e-09
  27          -1.74047e-10
  28          -4.19924e-09
  29             -0.669071
  30             -0.803326
  31             0.0527368
  32           8.66804e-09
  33            -0.0442659
  34              0.669071
  35              0.803326
  36             0.0527368
  37          -1.39514e-09
  38             0.0442659
 Sym= A
 Ene=        0.824817
 Spin= Alpha
 Occup=    0.00000
   1          -8.62146e-09
   2          -2.06218e-08
   3            3.3944e-08
   4             -0.793513
   5           1.03227e-07
   6           8.75284e-09
   7               1.40135
   8          -4.48792e-08
   9          -6.52848e-09
  10           6.39148e-09
  11               0.37411
  12          -1.20267e-08
  13          -3.61542e-09
  14          -3.40969e-08
  15            5.6297e-10
  16           2.47649e-09
  17          -1.05589e-08
  18             0.0831421
  19          -1.12413e-08
  20           7.64005e-09
  21             0.0621241
  22          -6.30031e-08
  23           1.62707e-10
  24          -1.68299e-09
  25            -0.0309159
  26           8.58456e-09
  27                     0
  28            1.7529e-09
  29              0.401312
  30              -1.38781
  31               0.17309
  32           4.66523e-09
  33               0.16806
  34             -0.401312
  35               1.38781
  36               0.17309
  37          -1.65414e-08
  38              -0.16806
 Sym= A
 Ene=        0.916621
 Spin= Alpha
 Occup=    0.00000
   1              0.193689
   2              0.367904
   3              -2.19896
   4           5.92279e-09
   5           -3.3851e-08
   6              0.979409
   7           -3.4114e-09
   8           6.31075e-08
   9              -1.15924
  10              0.268192
  11          -9.54463e-10
  12           3.73895e-08
  13            -0.0852529
  14           1.19354e-08
  15              0.020147
  16              0.158676
  17              0.014397
  18          -1.19512e-09
  19           3.97727e-09
  20              0.220537
  21          -1.85698e-09
  22          -3.52199e-08
  23               0.53869
  24             -0.073343
  25           1.09563e-09
  26           1.20349e-08
  27            0.00546965
  28            7.4305e-10
  29             0.0419427
  30              0.895153
  31             -0.168809
  32           6.06594e-09
  33            -0.0276225
  34             0.0419427
  35              0.895153
  36              0.168809
  37          -7.59302e-09
  38            -0.0276225
 Sym= A
 Ene=        0.983292
 Spin= Alpha
 Occup=    0.00000
   1             -0.618202
   2              -1.49771
   3               3.26868
   4           1.21245e-08
   5           1.86187e-07
   6             0.0933976
   7          -2.44229e-08
   8          -1.91911e-07
   9             0.0036187
  10              0.326584
  11          -5.01734e-09
  12            2.3188e-08
  13             0.0710522
  14          -8.16207e-09
  15             0.0321767
  16             0.0893566
  17             -0.815006
  18          -6.38074e-10
  19          -1.79129e-08
  20              0.406135
  21           4.35744e-10
  22           2.56405e-08
  23             -0.381881
  24            -0.0858001
  25           1.35266e-09
  26           2.33332e-08
  27           -0.00757446
  28          -4.17958e-10
  29              0.030143
  30             -0.929759
  31             0.0998372
  32          -7.03958e-09
  33                0.1626
  34              0.030143
  35             -0.929759
  36            -0.0998372
  37            3.7975e-08
  38                0.1626
 Sym= A
 Ene=         1.10413
 Spin= Alpha
 Occup=    0.00000
   1               0.47493
   2              0.988257
   3            -0.0754302
   4            2.6061e-10
   5          -2.06775e-08
   6             -0.405877
   7           1.59826e-09
   8          -2.99451e-08
   9              -0.53917
  10              0.363608
  11           4.17588e-09
  12           8.07863e-08
  13             0.0129925
  14           8.78396e-08
  15             -0.021995
  16              -0.18177
  17             -0.867291
  18          -6.20177e-09
  19          -8.51336e-08
  20              0.521645
  21           8.35434e-09
  22           1.53185e-07
  23               -1.5227
  24             0.0243652
  25                     0
  26          -3.36758e-09
  27            0.00298084
  28           7.29026e-09
  29             0.0200424
  30              0.242597
  31            -0.0578361
  32           3.79373e-08
  33             0.0584118
  34             0.0200424
  35              0.242597
  36             0.0578361
  37          -3.09484e-08
  38             0.0584118
 Sym= A
 Ene=          1.1592
 Spin= Alpha
 Occup=    0.00000
   1           7.65449e-08
   2           1.65173e-07
   3          -1.64743e-07
   4           7.86845e-09
   5           2.55929e-09
   6          -2.72968e-08
   7            6.3513e-08
   8           2.46381e-09
   9          -6.78831e-08
  10           2.53105e-08
  11          -5.85036e-09
  12           -4.6236e-10
  13           1.57857e-08
  14             -0.656379
  15          -7.22645e-09
  16          -3.16892e-08
  17          -4.59153e-08
  18          -2.77834e-08
  19          -1.47676e-10
  20           5.90314e-08
  21           2.53341e-09
  22          -2.33496e-09
  23          -1.57047e-07
  24           4.98428e-09
  25           1.74591e-09
  26           2.87913e-10
  27          -1.11123e-09
  28            -0.0421034
  29          -2.95515e-08
  30           5.72614e-08
  31          -1.33567e-08
  32             -0.337113
  33          -1.46926e-08
  34           3.15827e-08
  35           9.71042e-08
  36            3.0967e-08
  37              0.337113
  38           1.40949e-08
 Sym= A
 Ene=         1.29083
 Spin= Alpha
 Occup=    0.00000
   1          -4.65279e-08
   2          -9.85468e-08
   3          -3.85133e-07
   4          -1.42033e-07
   5             0.0676647
   6           9.42802e-08
   7           6.48546e-07
   8             -0.444575
   9             2.107e-07
  10          -7.15484e-08
  11          -1.98429e-07
  12              0.229224
  13           1.93411e-09
  14           6.60236e-10
  15          -9.35206e-08
  16          -1.77247e-07
  17           5.95658e-07
  18           3.55987e-07
  19             -0.947505
  20          -5.27051e-08
  21          -7.03158e-07
  22               1.28095
  23           3.39578e-07
  24          -1.79308e-09
  25           2.14643e-08
  26            -0.0320723
  27           8.47549e-09
  28           -4.5921e-10
  29           6.30578e-08
  30          -3.34219e-07
  31           7.28076e-09
  32            -0.0800387
  33           1.09016e-08
  34           1.13245e-08
  35           3.32983e-07
  36           2.16346e-08
  37            -0.0800387
  38           2.62848e-08
 Sym= A
 Ene=         1.32426
 Spin= Alpha
 Occup=    0.00000
   1          -3.55962e-09
   2          -7.17685e-09
   3          -1.45804e-08
   4              0.234169
   5           1.09808e-08
   6           4.09269e-09
   7              -1.28259
   8          -2.13799e-07
   9           1.21285e-08
  10          -4.92284e-09
  11              0.453109
  12           1.28191e-07
  13           1.73311e-09
  14           1.14167e-08
  15          -4.92624e-09
  16          -9.73216e-09
  17           3.08104e-08
  18             -0.814621
  19          -4.37531e-07
  20          -3.30965e-09
  21               1.49048
  22           5.97747e-07
  23           1.81735e-08
  24          -3.57509e-10
  25            -0.0455542
  26          -1.87526e-08
  27                     0
  28           -1.4367e-09
  29            -0.0720219
  30              0.646114
  31            -0.0240074
  32          -3.08617e-08
  33              0.028804
  34             0.0720219
  35             -0.646114
  36            -0.0240074
  37          -2.94125e-08
  38             -0.028804
 Sym= A
 Ene=         1.42198
 Spin= Alpha
 Occup=    0.00000
   1           3.07384e-08
   2           6.05875e-08
   3          -1.31689e-07
   4           2.97379e-08
   5             0.0542834
   6          -3.31326e-09
   7          -6.45479e-08
   8              0.427509
   9          -8.34877e-08
  10           4.95975e-08
  11           2.74048e-08
  12             -0.844779
  13          -4.08045e-08
  14           4.67539e-09
  15          -2.27685e-08
  16          -5.26387e-08
  17           1.10205e-08
  18          -1.44014e-08
  19             -0.203681
  20           2.57767e-09
  21           3.75462e-08
  22             -0.427083
  23           -2.0095e-08
  24           4.95886e-09
  25            1.6019e-09
  26             0.0820474
  27           2.79364e-09
  28                     0
  29           5.49224e-08
  30           7.35879e-08
  31          -1.87982e-08
  32             -0.319755
  33           2.54142e-08
  34           6.77106e-08
  35          -2.09317e-08
  36           1.33059e-08
  37             -0.319755
  38           5.77664e-08
 Sym= A
 Ene=         1.68321
 Spin= Alpha
 Occup=    0.00000
   1              0.262908
   2              0.505417
   3              -1.27745
   4                     0
   5          -2.86774e-08
   6            -0.0272182
   7           6.96285e-08
   8          -2.18929e-09
   9             -0.805714
  10            -0.0758601
  11           8.12286e-09
  12           5.73799e-08
  13             -0.910919
  14          -1.29716e-08
  15             0.0813464
  16              0.172093
  17             -0.339771
  18            9.4524e-09
  19           2.66314e-08
  20             -0.114371
  21          -2.69607e-08
  22           1.36252e-08
  23              0.124914
  24              0.023265
  25           1.30278e-09
  26          -1.36454e-08
  27             -0.110834
  28           2.07949e-09
  29              0.695169
  30              0.245671
  31              0.014569
  32           3.95501e-09
  33              0.278759
  34              0.695169
  35              0.245671
  36            -0.0145691
  37           1.34382e-08
  38              0.278759
 Sym= A
 Ene=         1.70345
 Spin= Alpha
 Occup=    0.00000
   1           1.25728e-08
   2           2.34676e-08
   3          -6.59468e-08
   4             0.0737605
   5           1.19722e-08
   6           4.04617e-09
   7              -1.40362
   8          -9.74493e-09
   9          -3.13411e-08
  10          -5.54956e-09
  11             -0.136887
  12           1.49391e-08
  13          -4.74172e-08
  14          -5.08725e-09
  15           2.86916e-09
  16           6.71827e-09
  17          -4.71641e-09
  18             -0.213776
  19            8.3473e-10
  20          -2.71946e-10
  21              0.565183
  22           7.33234e-09
  23           6.28075e-09
  24           6.29548e-10
  25            -0.0268921
  26          -1.66074e-10
  27          -5.79852e-09
  28            2.8194e-10
  29              0.454423
  30              0.470784
  31              0.510232
  32           1.12515e-08