[Molden Format]
made by pyscf v[2.3.0]
[Atoms] (AU)
O   1   8     0.00000000000000    -0.14361918546694     0.00000000000000
H   2   1     1.63839254999791     1.13572540086360     0.00000000000000
H   3   1    -1.63839254999791     1.13572540086360     0.00000000000000
[GTO]
1 0

2 0
 s    1 1.00
                31.997                   1
 s    1 1.00
                 16.01                   1
 s    1 1.00
                 8.734                   1
 s    1 1.00
                 1.957                   1
 p    1 1.00
                24.028                   1
 p    1 1.00
                13.795                   1
 p    1 1.00
                 9.438                   1
 d    1 1.00
                19.016                   1
 d    1 1.00
                10.524                   1

3 0
 s    1 1.00
                31.997                   1
 s    1 1.00
                 16.01                   1
 s    1 1.00
                 8.734                   1
 s    1 1.00
                 1.957                   1
 p    1 1.00
                24.028                   1
 p    1 1.00
                13.795                   1
 p    1 1.00
                 9.438                   1
 d    1 1.00
                19.016                   1
 d    1 1.00
                10.524                   1

[5d]
[7f]
[9g]

[MO]
 Sym= A
 Ene=       -0.905681
 Spin= Alpha
 Occup=    1.00000
   1          -6.63828e-05
   2            0.00294293
   3          -0.000156397
   4           6.84336e-06
   5          -0.000592282
   6          -0.000479835
   7                     0
   8          -0.000909696
   9          -0.000817344
  10                     0
  11            0.00026634
  12           0.000226992
  13                     0
  14          -0.000223318
  15                     0
  16                     0
  17           5.46654e-05
  18           0.000413057
  19           4.42359e-05
  20                     0
  21                     0
  22          -2.12507e-05
  23          -6.88755e-05
  24             0.0206217
  25             -0.915444
  26             0.0485584
  27           -0.00208649
  28             -0.184259
  29              0.149278
  30                     0
  31             -0.283002
  32              0.254269
  33          -2.54582e-10
  34             0.0828562
  35            -0.0706139
  36                     0
  37             0.0694739
  38                     0
  39                     0
  40            -0.0170064
  41              0.128501
  42            -0.0137617
  43                     0
  44                     0
  45            0.00661112
  46            -0.0214269
 Sym= A
 Ene=       -0.905681
 Spin= Alpha
 Occup=    1.00000
   1            -0.0206217
   2              0.915444
   3            -0.0485584
   4            0.00208649
   5             -0.184259
   6             -0.149278
   7                     0
   8             -0.283002
   9             -0.254269
  10           2.05758e-10
  11             0.0828562
  12             0.0706139
  13                     0
  14            -0.0694739
  15                     0
  16                     0
  17             0.0170064
  18              0.128501
  19             0.0137617
  20                     0
  21                     0
  22           -0.00661112
  23            -0.0214269
  24          -6.61909e-05
  25            0.00294231
  26          -0.000155778
  27           6.57033e-06
  28           0.000592292
  29          -0.000479848
  30                     0
  31           0.000909676
  32          -0.000817312
  33                     0
  34          -0.000266329
  35           0.000226973
  36                     0
  37          -0.000223318
  38                     0
  39                     0
  40           5.46657e-05
  41          -0.000413056
  42           4.42359e-05
  43                     0
  44                     0
  45          -2.12512e-05
  46           6.88748e-05
 Sym= A
 Ene=        0.576341
 Spin= Alpha
 Occup=    1.00000
   1             -0.490458
   2               1.85173
   3              -2.12519
   4               1.18922
   5              0.197842
   6              0.170109
   7          -2.53908e-09
   8             -0.588593
   9             -0.506325
  10           8.07467e-09
  11              0.436782
  12              0.375853
  13           -6.2428e-09
  14            0.00577547
  15           4.15852e-10
  16           3.25285e-10
  17           -0.00081962
  18            -0.0115341
  19           -0.00729947
  20          -5.73558e-10
  21          -4.48615e-10
  22           0.000949423
  23             0.0148293
  24              0.490673
  25              -1.85254
  26               2.12612
  27              -1.18974
  28              0.197928
  29             -0.170184
  30           3.14352e-09
  31             -0.588851
  32              0.506547
  33          -9.99394e-09
  34              0.436974
  35             -0.376017
  36           7.72531e-09
  37             -0.005778
  38           5.03394e-10
  39           -4.0844e-10
  40           0.000819979
  41            -0.0115392
  42            0.00730267
  43          -6.94217e-10
  44           5.63282e-10
  45          -0.000949839
  46             0.0148358
 Sym= A
 Ene=        0.576356
 Spin= Alpha
 Occup=    1.00000
   1              0.490622
   2              -1.85236
   3               2.12593
   4              -1.18965
   5             -0.197919
   6             -0.170175
   7           2.54008e-09
   8              0.588827
   9              0.506525
  10          -8.07788e-09
  11             -0.436958
  12             -0.376003
  13            6.2453e-09
  14           -0.00577822
  15          -4.16026e-10
  16          -3.25421e-10
  17           0.000819982
  18             0.0115396
  19            0.00730305
  20           5.73799e-10
  21           4.48805e-10
  22           -0.00094985
  23            -0.0148364
  24              0.490408
  25              -1.85155
  26                 2.125
  27              -1.18913
  28              0.197832
  29             -0.170101
  30             3.142e-09
  31             -0.588569
  32              0.506303
  33          -9.98915e-09
  34              0.436767
  35             -0.375838
  36           7.72162e-09
  37           -0.00577569
  38            5.0316e-10
  39          -4.08253e-10
  40           0.000819623
  41            -0.0115345
  42            0.00729985
  43          -6.93897e-10
  44           5.63026e-10
  45          -0.000949434
  46             0.0148299
 Sym= A
 Ene=        0.971996
 Spin= Alpha
 Occup=    1.00000
   1             -0.626201
   2               1.88713
   3              -1.59785
   4              0.266877
   5             -0.573544
   6             -0.520308
   7           1.16457e-08
   8               2.26818
   9               2.04812
  10          -4.31251e-08
  11              -1.98103
  12              -1.78527
  13           3.64923e-08
  14             -0.175239
  15          -4.44458e-09
  16          -3.97939e-09
  17             0.0372754
  18              0.299968
  19              0.270458
  20           6.81822e-09
  21           6.10196e-09
  22            -0.0576973
  23             -0.463051
  24             -0.627992
  25               1.89253
  26              -1.60242
  27              0.267641
  28              0.575185
  29             -0.521797
  30           1.43941e-08
  31              -2.27467
  32               2.05398
  33          -5.33217e-08
  34                1.9867
  35              -1.79038
  36            4.5129e-08
  37             -0.175741
  38           5.52167e-09
  39          -4.92233e-09
  40             0.0373821
  41             -0.300827
  42              0.271232
  43          -8.47047e-09
  44           7.54901e-09
  45            -0.0578624
  46              0.464376
 Sym= A
 Ene=        0.971999
 Spin= Alpha
 Occup=    0.00000
   1              0.627999
   2              -1.89256
   3               1.60246
   4             -0.267672
   5              0.575181
   6              0.521795
   7          -1.16792e-08
   8              -2.27466
   9              -2.05398
  10            4.3249e-08
  11               1.98669
  12               1.79038
  13          -3.65971e-08
  14              0.175743
  15           4.45737e-09
  16           3.99083e-09
  17             -0.037382
  18              -0.30083
  19             -0.271235
  20          -6.83783e-09
  21          -6.11952e-09
  22             0.0578623
  23               0.46438
  24             -0.626207
  25               1.88716
  26              -1.59789
  27              0.266908
  28               0.57354
  29             -0.520307
  30           1.43534e-08
  31              -2.26817
  32               2.04812
  33           -5.3171e-08
  34               1.98102
  35              -1.78527
  36           4.50015e-08
  37             -0.175241
  38           5.50604e-09
  39          -4.90842e-09
  40             0.0372754
  41             -0.299971
  42              0.270461
  43          -8.44649e-09
  44           7.52767e-09
  45            -0.0576973
  46              0.463056
 Sym= A
 Ene=         1.00887
 Spin= Alpha
 Occup=    0.00000
   1                     0
   2                     0
   3                     0
   4                     0
   5                     0
   6                     0
   7           0.000606803
   8                     0
   9                     0
  10           -0.00217904
  11                     0
  12                     0
  13             0.0018142
  14                     0
  15          -0.000169127
  16          -0.000147584
  17                     0
  18                     0
  19                     0
  20            0.00025699
  21           0.000224276
  22                     0
  23                     0
  24          -6.39345e-09
  25           1.82985e-08
  26          -1.46596e-08
  27           1.06452e-09
  28          -6.43404e-09
  29          -3.51828e-08
  30              -1.47461
  31           1.95169e-08
  32           1.29454e-07
  33               5.29535
  34          -1.48431e-08
  35          -1.08991e-07
  36              -4.40875
  37          -9.41249e-09
  38             -0.411002
  39              0.358648
  40          -1.02539e-08
  41          -8.69465e-09
  42           1.44779e-08
  43               0.62452
  44             -0.545021
  45            1.5564e-08
  46           1.33747e-08
 Sym= A
 Ene=         1.00887
 Spin= Alpha
 Occup=    0.00000
   1          -5.12186e-09
   2            1.4647e-08
   3          -1.17224e-08
   4           8.29351e-10
   5            1.2741e-08
   6          -3.69674e-08
   7              -1.47461
   8          -4.28753e-08
   9           1.35256e-07
  10               5.29535
  11           3.45667e-08
  12          -1.13581e-07
  13              -4.40875
  14          -7.57387e-09
  15              0.411002
  16              0.358648
  17          -1.24626e-08
  18           7.56669e-09
  19           1.16499e-08
  20              -0.62452
  21             -0.545021
  22           1.89253e-08
  23          -1.16291e-08
  24                     0
  25                     0
  26                     0
  27                     0
  28                     0
  29                     0
  30          -0.000606803
  31                     0
  32                     0
  33            0.00217904
  34                     0
  35                     0
  36            -0.0018142
  37                     0
  38          -0.000169127
  39           0.000147584
  40                     0
  41                     0
  42                     0
  43            0.00025699
  44          -0.000224276
  45                     0
  46                     0
 Sym= A
 Ene=         1.00987
 Spin= Alpha
 Occup=    0.00000
   1           0.000911144
   2           -0.00280128
   3            0.00238394
   4          -0.000426817
   5             0.0762592
   6            -0.0859486
   7           2.80521e-09
   8             -0.274376
   9              0.308495
  10          -1.00757e-08
  11               0.22865
  12              -0.25674
  13           8.38953e-09
  14            0.00027414
  15          -5.96095e-10
  16          -8.99664e-10
  17            -0.0423602
  18            0.00533461
  19          -0.000420643
  20           9.02885e-10
  21            1.3706e-09
  22             0.0643947
  23            -0.0080967
  24             0.0116448
  25            -0.0358033
  26             0.0304727
  27            -0.0054601
  28             -0.973877
  29               -1.0976
  30           3.03102e-08
  31               3.50396
  32               3.93961
  33          -1.08857e-07
  34                 -2.92
  35              -3.27868
  36           9.06348e-08
  37            0.00350355
  38           5.48684e-09
  39          -1.07968e-08
  40             -0.540963
  41            -0.0681214
  42           -0.00537594
  43          -8.29078e-09
  44           1.64613e-08
  45              0.822355
  46              0.103392
 Sym= A
 Ene=         1.00987
 Spin= Alpha
 Occup=    0.00000
   1             0.0116449
   2            -0.0358037
   3              0.030473
   4           -0.00546022
   5              0.973877
   6               -1.0976
   7           3.58288e-08
   8              -3.50396
   9               3.93961
  10          -1.28688e-07
  11                  2.92
  12              -3.27868
  13           1.07153e-07
  14            0.00350358
  15          -7.61375e-09
  16          -1.14903e-08
  17             -0.540963
  18             0.0681213
  19           -0.00537599
  20           1.15323e-08
  21            1.7505e-08
  22              0.822355
  23             -0.103392
  24          -0.000912557
  25            0.00280594
  26           -0.00238843
  27           0.000428302
  28             0.0762602
  29             0.0859477
  30          -2.37751e-09
  31             -0.274381
  32             -0.308491
  33           8.53866e-09
  34              0.228654
  35              0.256736
  36          -7.10934e-09
  37          -0.000274555
  38          -4.30787e-10
  39           8.46433e-10
  40             0.0423603
  41            0.00533391
  42            0.00042129
  43           6.50941e-10
  44          -1.29051e-09
  45            -0.0643948
  46            -0.0080956
 Sym= A
 Ene=         1.30354
 Spin= Alpha
 Occup=    0.00000
   1                     0
   2                     0
   3                     0
   4                     0
   5                     0
   6                     0
   7          -3.45532e-07
   8                     0
   9                     0
  10           9.88113e-07
  11                     0
  12                     0
  13          -7.47243e-07
  14          -2.14157e-10
  15           3.81245e-05
  16          -4.40551e-05
  17                     0
  18          -1.21395e-10
  19           3.39882e-10
  20          -6.04616e-05
  21           6.99371e-05
  22                     0
  23           1.92498e-10
  24          -7.20722e-09
  25           2.39565e-08
  26          -1.91879e-08
  27           2.51731e-09
  28           -3.7086e-09
  29          -3.69326e-09
  30            0.00667708
  31           1.29349e-08
  32           1.24308e-08
  33            -0.0190942
  34          -9.54031e-09
  35          -1.11916e-08
  36             0.0144396
  37           5.31317e-07
  38              0.736694
  39              0.851294
  40           3.76968e-08
  41          -3.00565e-07
  42          -8.43232e-07
  43              -1.16832
  44              -1.35142
  45          -6.02341e-08
  46           4.76617e-07
 Sym= A
 Ene=         1.30354
 Spin= Alpha
 Occup=    0.00000
   1           9.10787e-09
   2          -3.02717e-08
   3           2.42417e-08
   4          -3.18107e-09
   5          -4.26553e-09
   6           4.22157e-09
   7           -0.00667708
   8           1.42622e-08
   9          -1.34059e-08
  10             0.0190942
  11           -1.0111e-08
  12           1.19694e-08
  13            -0.0144396
  14           -6.7536e-07
  15              0.736694
  16             -0.851294
  17           -5.0724e-08
  18           -3.8166e-07
  19           1.07184e-06
  20              -1.16832
  21               1.35142
  22           8.10382e-08
  23           6.05209e-07
  24                     0
  25                     0
  26                     0
  27                     0
  28                     0
  29                     0
  30          -3.45556e-07
  31                     0
  32                     0
  33           9.88168e-07
  34                     0
  35                     0
  36          -7.47284e-07
  37          -9.44149e-10
  38          -3.81245e-05
  39          -4.40551e-05
  40                     0
  41           5.33029e-10
  42           1.49844e-09
  43           6.04616e-05
  44           6.99372e-05
  45           1.23534e-10
  46          -8.45213e-10
 Sym= A
 Ene=         1.30354
 Spin= Alpha
 Occup=    0.00000
   1           0.000742108
   2           -0.00248257
   3            0.00197764
   4           -0.00026511
   5          -0.000309075
   6           0.000317869
   7            3.8235e-10
   8           0.000936159
   9          -0.000856935
  10          -1.24857e-09
  11          -0.000595003
  12           0.000737853
  13            1.0088e-09
  14            -0.0628614
  15          -3.36349e-08
  16            3.8389e-08
  17            -0.0051743
  18            -0.0355184
  19              0.099766
  20           5.33431e-08
  21          -6.09411e-08
  22            0.00826439
  23             0.0563208
  24             0.0115076
  25            -0.0385017
  26             0.0306739
  27           -0.00411778
  28            0.00479655
  29            0.00493388
  30           5.10066e-09
  31            -0.0145269
  32            -0.0133024
  33          -1.75666e-08
  34            0.00923249
  35             0.0114537
  36           1.45286e-08
  37             -0.975617
  38           4.03958e-07
  39           4.57517e-07
  40            -0.0803072
  41               0.55126
  42               1.54838
  43          -6.40668e-07
  44           -7.2628e-07
  45              0.128267
  46             -0.874121
 Sym= A
 Ene=         1.30354
 Spin= Alpha
 Occup=    0.00000
   1            -0.0115076
   2             0.0385015
   3            -0.0306737
   4             0.0041178
   5            0.00479654
   6           -0.00493389
   7          -5.83719e-09
   8            -0.0145269
   9             0.0133024
  10           1.91006e-08
  11            0.00923247
  12            -0.0114538
  13           -1.5447e-08
  14              0.975617
  15           5.11279e-07
  16          -5.83395e-07
  17             0.0803072
  18               0.55126
  19              -1.54838
  20          -8.10862e-07
  21           9.26116e-07
  22             -0.128267
  23             -0.874121
  24            0.00074081
  25            -0.0024789
  26            0.00197512
  27          -0.000265526
  28           0.000309028
  29           0.000317933
  30           3.29897e-10
  31           -0.00093584
  32          -0.000857269
  33          -1.13543e-09
  34           0.000594734
  35           0.000738127
  36            9.3881e-10
  37            -0.0628609
  38           2.61633e-08
  39           2.96353e-08
  40           -0.00517443
  41             0.0355193
  42             0.0997652
  43          -4.14944e-08
  44          -4.70442e-08
  45            0.00826461
  46            -0.0563222
 Sym= A
 Ene=         1.35565
 Spin= Alpha
 Occup=    0.00000
   1              0.925055
   2              -2.88317
   3               2.36917
   4             -0.228213
   5            0.00341146
   6            0.00597127
   7          -1.17978e-09
   8            -0.0387201
   9            -0.0430087
  10           2.03079e-09
  11             0.0927102
  12              0.086665
  13          -8.85333e-10
  14             -0.287944
  15          -4.36484e-09
  16          -3.00797e-09
  17             0.0678717
  18              0.505991
  19               0.45721
  20           6.99899e-09
  21           4.83691e-09
  22             -0.107809
  23             -0.803893
  24              0.926921
  25              -2.88898
  26               2.37395
  27             -0.228673
  28           -0.00341834
  29            0.00598332
  30          -1.48376e-09
  31             0.0387982
  32            -0.0430955
  33           2.58139e-09
  34            -0.0928972
  35             0.0868398
  36          -1.14728e-09
  37             -0.288524
  38           5.27636e-09
  39           -3.9476e-09
  40             0.0680085
  41             -0.507011
  42              0.458132
  43          -8.46362e-09
  44           6.34437e-09
  45             -0.108026
  46              0.805514
 Sym= A
 Ene=         1.35565
 Spin= Alpha
 Occup=    0.00000
   1             -0.926932
   2               2.88903
   3              -2.37401
   4              0.228706
   5           -0.00341979
   6           -0.00598742
   7           1.18236e-09
   8             0.0388116
   9              0.043115
  10          -2.03555e-09
  11            -0.0929131
  12            -0.0868591
  13           8.87634e-10
  14              0.288525
  15           4.37364e-09
  16           3.01417e-09
  17            -0.0680072
  18             -0.507011
  19             -0.458133
  20          -7.01311e-09
  21          -4.84688e-09
  22              0.108024
  23              0.805514
  24              0.925066
  25              -2.88322
  26               2.36923
  27             -0.228246
  28           -0.00341291
  29            0.00597538
  30          -1.48099e-09
  31             0.0387336
  32            -0.0430283
  33           2.57692e-09
  34            -0.0927262
  35             0.0866843
  36          -1.14556e-09
  37             -0.287945
  38           5.26574e-09
  39          -3.93981e-09
  40             0.0678703
  41             -0.505991
  42              0.457212
  43          -8.44657e-09
  44           6.33184e-09
  45             -0.107807
  46              0.803893
 Sym= A
 Ene=         1.41085
 Spin= Alpha
 Occup=    0.00000
   1                     0
   2                     0
   3                     0
   4                     0
   5                     0
   6                     0
   7            0.00188408
   8           1.40309e-10
   9          -1.76134e-10
  10           -0.00531507
  11                     0
  12           1.23847e-10
  13            0.00374421
  14                     0
  15           0.000822968
  16           0.000708018
  17                     0
  18                     0
  19                     0
  20           -0.00141249
  21           -0.00121648
  22                     0
  23                     0
  24          -3.68945e-09
  25           1.12966e-08
  26            -9.227e-09
  27           3.65269e-10
  28          -3.28319e-08
  29          -4.33081e-08
  30              -1.50826
  31           9.34734e-08
  32           1.21449e-07
  33               4.25487
  34           -6.6072e-08
  35          -8.53579e-08
  36              -2.99735
  37           7.56554e-09
  38               0.65881
  39             -0.566789
  40            3.0155e-08
  41            9.4693e-09
  42          -1.26937e-08
  43              -1.13074
  44               0.97383
  45          -5.18302e-08
  46          -1.59021e-08
 Sym= A
 Ene=         1.41085
 Spin= Alpha
 Occup=    0.00000
   1           -2.8431e-09
   2           8.59774e-09
   3          -7.02267e-09
   4           2.44357e-10
   5           3.91272e-08
   6          -4.96661e-08
   7              -1.50826
   8          -1.11057e-07
   9           1.39533e-07
  10               4.25487
  11           7.84448e-08
  12           -9.8106e-08
  13              -2.99735
  14           5.98645e-09
  15              -0.65881
  16             -0.566789
  17             3.538e-08
  18          -9.20597e-09
  19          -1.00588e-08
  20               1.13074
  21               0.97383
  22          -6.07921e-08
  23           1.55224e-08
  24                     0
  25                     0
  26                     0
  27                     0
  28                     0
  29                     0
  30           -0.00188408
  31           1.18854e-10
  32           1.54275e-10
  33            0.00531507
  34                     0
  35          -1.08427e-10
  36           -0.00374421
  37                     0
  38           0.000822968
  39          -0.000708018
  40                     0
  41                     0
  42                     0
  43           -0.00141249
  44            0.00121648
  45                     0
  46                     0
 Sym= A
 Ene=         1.41213
 Spin= Alpha
 Occup=    0.00000
   1           -0.00183243
   2            0.00738729
   3           -0.00622232
   4           0.000660579
   5             -0.147221
   6              0.174434
   7          -9.54282e-09
   8              0.415357
   9             -0.492223
  10           2.69264e-08
  11              -0.29311
  12              0.346322
  13          -1.89699e-08
  14           0.000540674
  15          -3.82249e-09
  16          -3.94579e-09
  17             -0.129579
  18             0.0187103
  19          -0.000700806
  20            6.5739e-09
  21           6.77437e-09
  22              0.222589
  23            -0.0322792
  24            -0.0120128
  25             0.0484217
  26            -0.0407879
  27            0.00433356
  28              0.964327
  29               1.14258
  30          -5.36879e-08
  31              -2.72067
  32              -3.22415
  33           1.51487e-07
  34               1.91993
  35               2.26848
  36          -1.06723e-07
  37            0.00354446
  38            2.0641e-08
  39          -2.31541e-08
  40             -0.848769
  41             -0.122551
  42           -0.00459507
  43          -3.55288e-08
  44           3.97308e-08
  45                 1.458
  46              0.211427
 Sym= A
 Ene=         1.41213
 Spin= Alpha
 Occup=    0.00000
   1            -0.0120133
   2             0.0484234
   3            -0.0407893
   4            0.00433388
   5             -0.964327
   6               1.14258
   7          -6.24996e-08
   8               2.72067
   9              -3.22415
  10           1.76351e-07
  11              -1.91993
  12               2.26847
  13          -1.24241e-07
  14             0.0035446
  15          -2.50346e-08
  16          -2.58428e-08
  17             -0.848769
  18              0.122551
  19           -0.00459529
  20           4.30544e-08
  21           4.43685e-08
  22                 1.458
  23             -0.211426
  24            0.00183557
  25           -0.00739778
  26            0.00623184
  27          -0.000662655
  28             -0.147221
  29             -0.174434
  30           8.19724e-09
  31              0.415358
  32              0.492222
  33          -2.31296e-08
  34             -0.293111
  35             -0.346321
  36           1.62948e-08
  37          -0.000541592
  38          -3.15156e-09
  39           3.53519e-09
  40              0.129579
  41             0.0187087
  42           0.000702261
  43            5.4247e-09
  44          -6.06613e-09
  45             -0.222589
  46            -0.0322767
 Sym= A
 Ene=         1.51412
 Spin= Alpha
 Occup=    0.00000
   1             -0.156182
   2               1.02332
   3              -1.06934
   4             0.0280569
   5               1.13738
   6              0.974361
   7          -3.66034e-09
   8              -3.13565
   9              -2.68402
  10           9.71752e-09
  11               2.03952
  12               1.74329
  13          -6.07422e-09
  14            -0.0768787
  15          -1.51877e-10
  16          -2.04129e-10
  17             0.0239425
  18              0.131219
  19              0.212528
  20           9.37191e-10
  21           9.32763e-10
  22            -0.0609403
  23             -0.362241
  24             -0.178412
  25               1.16897
  26              -1.22154
  27             0.0320508
  28              -1.29926
  29               1.11304
  30          -5.31506e-09
  31               3.58193
  32              -3.06602
  33           1.41321e-08
  34               -2.3298
  35               1.99141
  36          -8.85948e-09
  37            -0.0878204
  38           2.76506e-10
  39          -3.00747e-10
  40             0.0273501
  41             -0.149894
  42              0.242776
  43          -1.43871e-09
  44           1.34894e-09
  45            -0.0696136
  46              0.413797
 Sym= A
 Ene=         1.51412
 Spin= Alpha
 Occup=    0.00000
   1             -0.178415
   2               1.16898
   3              -1.22155
   4              0.032055
   5               1.29926
   6               1.11304
   7          -4.18129e-09
   8              -3.58193
   9              -3.06603
  10           1.11005e-08
  11                2.3298
  12               1.99141
  13          -6.93871e-09
  14            -0.0878194
  15          -1.73472e-10
  16          -2.33166e-10
  17             0.0273498
  18              0.149893
  19              0.242775
  20           1.07054e-09
  21            1.0655e-09
  22            -0.0696131
  23             -0.413794
  24              0.156186
  25              -1.02334
  26               1.06936
  27            -0.0280618
  28               1.13738
  29             -0.974361
  30           4.65283e-09
  31              -3.13565
  32               2.68402
  33          -1.23713e-08
  34               2.03952
  35              -1.74329
  36           7.75557e-09
  37             0.0768775
  38          -2.42035e-10
  39           2.63255e-10
  40            -0.0239421
  41              0.131217
  42             -0.212526
  43           1.25943e-09
  44          -1.18084e-09
  45             0.0609397