[Molden Format]
made by pyscf v[2.3.0]
[Atoms] (AU)
O   1   8     0.00000000000000    -0.14361918546694     0.00000000000000
H   2   1     1.63839254999791     1.13572540086360     0.00000000000000
H   3   1    -1.63839254999791     1.13572540086360     0.00000000000000
[GTO]
1 0
 s    8 1.00
                 11720  0.00070964460770356
                  1759  0.0054675258872822
                 400.8   0.027823446651045
                 113.7    0.10474737843827
                 37.03    0.28291686541233
                 13.27    0.44849688666277
                 5.025    0.27081910000987
                 1.013   0.015450731397046
 s    8 1.00
                 11720  -0.00031443950051049
                  1759  -0.0024821430850483
                 400.8  -0.012316415460599
                 113.7  -0.050540354883472
                 37.03   -0.13938384804979
                 13.27   -0.32507252749198
                 5.025   -0.22985000902104
                 1.013     1.0953811501031
 s    1 1.00
                0.3023                   1
 p    3 1.00
                  17.7   0.062677449946884
                 3.854    0.33353206540521
                 1.046    0.74124410961349
 p    1 1.00
                0.2753                   1
 d    1 1.00
                 1.185                   1

2 0
 s    3 1.00
                 13.01    0.03349893063435
                 1.962    0.23480204908308
                0.4446    0.81368185793465
 s    1 1.00
                 0.122                   1
 p    1 1.00
                 0.727                   1

3 0
 s    3 1.00
                 13.01    0.03349893063435
                 1.962    0.23480204908308
                0.4446    0.81368185793465
 s    1 1.00
                 0.122                   1
 p    1 1.00
                 0.727                   1

[5d]
[7f]
[9g]

[MO]
 Sym= A
 Ene=          -20.55
 Spin= Alpha
 Occup=    1.00000
   1                1.0008
   2           0.000853886
   3           -0.00343752
   4                     0
   5            0.00146957
   6          -1.07235e-10
   7                     0
   8          -0.000872143
   9                     0
  10           9.76128e-05
  11                     0
  12                     0
  13           -1.5068e-05
  14                     0
  15           0.000313779
  16           0.000474368
  17           0.000144996
  18           0.000201841
  19                     0
  20           0.000313779
  21           0.000474368
  22          -0.000144996
  23           0.000201841
  24                     0
 Sym= A
 Ene=         -1.2952
 Spin= Alpha
 Occup=    1.00000
   1             0.0078317
   2               -0.4492
   3             -0.458688
   4           -1.5441e-09
   5            -0.0690004
   6          -2.55331e-09
   7          -8.35136e-10
   8            -0.0142961
   9          -6.09138e-10
  10            0.00589875
  11                     0
  12           -1.1481e-10
  13           -0.00100025
  14          -1.08206e-10
  15             -0.136944
  16            -0.0140563
  17             0.0349104
  18             0.0233386
  19                     0
  20             -0.136944
  21            -0.0140563
  22            -0.0349104
  23             0.0233386
  24           1.33011e-10
 Sym= A
 Ene=       -0.647717
 Spin= Alpha
 Occup=    1.00000
   1                     0
   2          -1.87327e-09
   3          -2.61746e-09
   4              0.489078
   5           1.82818e-09
   6            -2.537e-09
   7              0.278109
   8           1.34061e-09
   9           -1.4919e-09
  10          -1.27319e-10
  11           -7.0238e-10
  12                     0
  13           1.21489e-10
  14              0.027655
  15              0.272579
  16              0.109459
  17            -0.0381114
  18             -0.042742
  19          -2.98668e-10
  20             -0.272579
  21             -0.109459
  22            -0.0381114
  23              0.042742
  24           1.87687e-10
 Sym= A
 Ene=       -0.543476
 Spin= Alpha
 Occup=    1.00000
   1          -0.000281639
   2              0.144274
   3              0.290449
   4           1.90322e-09
   5             -0.539909
   6          -4.66795e-08
   7           1.24136e-09
   8             -0.394562
   9          -3.30361e-08
  10             0.0140164
  11                     0
  12          -6.58275e-10
  13             0.0141964
  14                     0
  15             -0.177598
  16             -0.062716
  17             0.0383696
  18            0.00299923
  19          -1.75449e-09
  20             -0.177598
  21             -0.062716
  22            -0.0383696
  23            0.00299923
  24          -1.69832e-09
 Sym= A
 Ene=       -0.483123
 Spin= Alpha
 Occup=    1.00000
   1           5.95636e-10
   2           1.43401e-08
   3           3.20397e-08
   4           3.88748e-10
   5          -2.81081e-08
   6              0.630922
   7           2.63116e-10
   8          -2.42045e-08
   9              0.504437
  10           5.85254e-10
  11           2.11744e-10
  12             0.0190423
  13           6.57107e-10
  14           1.61816e-10
  15          -1.64126e-08
  16          -1.49635e-08
  17           2.43231e-09
  18           1.88289e-10
  19             0.0275681
  20          -1.97125e-08
  21          -1.89084e-08
  22          -2.74443e-09
  23           4.58745e-10
  24             0.0275681
 Sym= A
 Ene=        0.163466
 Spin= Alpha
 Occup=    0.00000
   1             -0.046788
   2             0.0756047
   3              0.854799
   4           4.76323e-09
   5              0.219056
   6          -1.12709e-08
   7           7.79103e-09
   8              0.359145
   9          -1.27993e-08
  10           -0.00817102
  11                     0
  12          -3.07706e-10
  13           -0.00436595
  14           3.03989e-10
  15            -0.0639457
  16             -0.783639
  17             0.0112959
  18              0.014474
  19          -6.28396e-10
  20            -0.0639457
  21             -0.783639
  22            -0.0112959
  23              0.014474
  24          -5.75287e-10
 Sym= A
 Ene=        0.234985
 Spin= Alpha
 Occup=    0.00000
   1           7.03968e-10
   2          -9.53706e-10
   3          -1.22659e-08
   4              0.300669
   5          -2.76275e-09
   6           9.77121e-10
   7              0.631513
   8          -5.06406e-09
   9           1.27676e-09
  10                     0
  11                     0
  12                     0
  13           2.81078e-10
  14             0.0139473
  15            -0.0392666
  16              -1.22636
  17             0.0162609
  18            0.00947781
  19           1.30919e-10
  20             0.0392666
  21               1.22636
  22             0.0162609
  23           -0.00947781
  24                     0
 Sym= A
 Ene=         0.78168
 Spin= Alpha
 Occup=    0.00000
   1           3.02631e-09
   2           9.36944e-09
   3          -1.13712e-08
   4              0.291036
   5           1.15357e-08
   6                     0
   7               0.28428
   8                     0
   9            9.5318e-10
  10           2.23558e-09
  11                     0
  12                     0
  13           -1.2504e-09
  14                -0.103
  15             -0.943524
  16              0.787533
  17           -0.00413878
  18            -0.0973133
  19                     0
  20              0.943524
  21             -0.787533
  22           -0.00413877
  23             0.0973133
  24                     0
 Sym= A
 Ene=        0.826286
 Spin= Alpha
 Occup=    0.00000
   1              0.094216
   2              0.291189
   3             -0.351874
   4          -8.39671e-09
   5              0.339159
   6           1.04372e-09
   7           -1.1295e-08
   8           -0.00722972
   9          -7.59611e-09
  10             0.0759457
  11                     0
  12          -1.16137e-10
  13             -0.050874
  14           3.72284e-09
  15             -0.857697
  16              0.609825
  17             -0.193938
  18           -0.00997622
  19          -8.84461e-10
  20             -0.857698
  21              0.609825
  22              0.193938
  23           -0.00997623
  24           -8.2911e-10
 Sym= A
 Ene=          1.1689
 Spin= Alpha
 Occup=    0.00000
   1            -0.0110825
   2             -0.124969
   3             -0.409614
   4          -7.09127e-09
   5              0.762506
   6           7.17954e-08
   7           1.17117e-08
   8              -1.06082
   9           -7.3674e-08
  10           -0.00715286
  11                     0
  12          -8.84376e-10
  13             0.0439007
  14           3.36067e-10
  15              0.332882
  16              0.102411
  17            -0.0141898
  18             -0.331281
  19           -9.9117e-09
  20              0.332882
  21              0.102411
  22             0.0141898
  23             -0.331281
  24          -1.00084e-08
 Sym= A
 Ene=         1.19155
 Spin= Alpha
 Occup=    0.00000
   1           5.61744e-10
   2           8.23848e-09
   3           3.34596e-08
   4          -2.59118e-09
   5          -6.18559e-08
   6              0.946767
   7           6.07642e-09
   8           8.02216e-08
   9             -0.921023
  10                     0
  11          -2.25697e-10
  12           -0.00950375
  13          -3.30035e-09
  14                     0
  15          -2.34288e-08
  16           -1.2099e-08
  17           3.79695e-09
  18           2.72874e-08
  19             -0.132003
  20          -2.06743e-08
  21          -7.87919e-09
  22          -1.71082e-09
  23            2.6895e-08
  24             -0.132003
 Sym= A
 Ene=          1.2634
 Spin= Alpha
 Occup=    0.00000
   1           1.48576e-09
   2           2.25466e-09
   3          -9.33397e-09
   4              0.789775
   5           5.78849e-09
   6            3.7146e-09
   7              -1.57004
   8          -1.09248e-08
   9           -3.0559e-09
  10           -5.3536e-10
  11          -1.59606e-10
  12                     0
  13           6.89797e-10
  14            0.00671285
  15               0.25701
  16              0.644768
  17             -0.332475
  18            -0.0996568
  19          -5.68459e-10
  20              -0.25701
  21             -0.644768
  22             -0.332475
  23             0.0996568
  24          -4.22166e-10
 Sym= A
 Ene=         1.44374
 Spin= Alpha
 Occup=    0.00000
   1           1.42723e-10
   2           3.23609e-10
   3          -5.02576e-10
   4          -4.87469e-10
   5                     0
   6            -5.024e-09
   7                     0
   8                     0
   9           9.24248e-09
  10                     0
  11              -0.14809
  12          -1.08776e-09
  13                     0
  14           1.03097e-10
  15          -1.29321e-10
  16                     0
  17                     0
  18          -1.99009e-10
  19             -0.679826
  20           3.78943e-10
  21           2.68362e-10
  22                     0
  23                     0
  24              0.679826
 Sym= A
 Ene=         1.47883
 Spin= Alpha
 Occup=    0.00000
   1             -0.246099
   2             -0.635466
   3              0.558083
   4          -1.87394e-10
   5              0.273019
   6          -1.22878e-09
   7           3.83813e-09
   8             -0.769769
   9           1.89123e-09
  10            -0.0421598
  11                     0
  12          -4.46458e-10
  13             -0.143147
  14          -2.20127e-10
  15              0.320765
  16             -0.189308
  17             -0.381271
  18              0.452832
  19          -8.88374e-10
  20              0.320765
  21             -0.189308
  22              0.381271
  23              0.452832
  24          -6.77992e-10
 Sym= A
 Ene=         1.65728
 Spin= Alpha
 Occup=    0.00000
   1           1.30348e-09
   2           2.88265e-09
   3          -4.26494e-09
   4                     0
   5           6.27128e-10
   6              0.210544
   7                     0
   8          -2.48087e-09
   9             -0.698015
  10          -3.62583e-10
  11          -1.55989e-09
  12              0.165513
  13          -4.57736e-10
  14                     0
  15           1.41262e-09
  16           5.85402e-10
  17          -8.26525e-10
  18           1.18744e-09
  19              0.732359
  20           1.55393e-09
  21           4.60769e-10
  22           6.27451e-10
  23           1.22642e-09
  24              0.732359
 Sym= A
 Ene=         1.80529
 Spin= Alpha
 Occup=    0.00000
   1            -1.921e-09
   2           -4.6155e-09
   3           5.09762e-09
   4              0.140221
   5                     0
   6                     0
   7             -0.908867
   8           -1.3504e-09
   9                     0
  10                     0
  11                     0
  12                     0
  13          -1.12193e-09
  14              0.033246
  15              0.350628
  16              0.103002
  17              0.363443
  18             -0.691115
  19           1.71519e-10
  20             -0.350628
  21             -0.103002
  22              0.363443
  23              0.691115
  24                     0
 Sym= A
 Ene=         1.90093
 Spin= Alpha
 Occup=    0.00000
   1              0.732377
   2               1.65234
   3              -2.40851
   4           1.18976e-09
   5              0.205746
   6           -2.1601e-09
   7           2.89702e-09
   8             -0.903466
   9            1.3256e-09
  10             -0.158844
  11                     0
  12          -2.89932e-10
  13            -0.0536677
  14          -2.94395e-10
  15              0.594964
  16              0.276774
  17             -0.229094
  18              0.126591
  19          -1.53446e-09
  20              0.594964
  21              0.276774
  22              0.229094
  23              0.126591
  24          -1.75204e-09
 Sym= A
 Ene=         2.13259
 Spin= Alpha
 Occup=    0.00000
   1            6.8429e-09
   2           8.44733e-09
   3          -6.44081e-08
   4             -0.661157
   5          -2.02596e-08
   6          -3.55607e-10
   7             -0.125727
   8          -1.85376e-08
   9           1.56511e-10
  10          -8.31992e-09
  11           4.65886e-10
  12                     0
  13           1.02872e-09
  14              0.106246
  15             0.0472669
  16              0.362362
  17             -0.655159
  18             -0.487442
  19                     0
  20            -0.0472669
  21             -0.362362
  22             -0.655159
  23              0.487442
  24                     0
 Sym= A
 Ene=         2.17587
 Spin= Alpha
 Occup=    0.00000
   1             0.0921034
   2             0.0344398
   3              -1.34761
   4           2.59447e-08
   5             -0.509372
   6            1.8161e-09
   7           5.45152e-09
   8             -0.382428
   9          -7.52579e-10
  10             -0.203829
  11                     0
  12           4.97653e-10
  13             0.0399331
  14          -4.83564e-09
  15              0.392713
  16              0.268524
  17             -0.767821
  18             -0.496586
  19                     0
  20              0.392713
  21              0.268524
  22              0.767821
  23             -0.496586
  24                     0
 Sym= A
 Ene=         3.17298
 Spin= Alpha
 Occup=    0.00000
   1           1.65437e-10
   2           4.03513e-10
   3           -5.1985e-10
   4                     0
   5          -8.11984e-10
   6             0.0549607
   7                     0
   8           2.73264e-10
   9             -0.218607
  10          -3.81399e-10
  11          -3.56926e-09
  12              -1.01143
  13          -1.58253e-09
  14                     0
  15           -1.0038e-10
  16           1.33045e-10
  17                     0
  18          -7.32315e-10
  19              0.300619
  20          -1.80755e-10
  21           1.23155e-10
  22                     0
  23          -7.41473e-10
  24              0.300619
 Sym= A
 Ene=         3.20746
 Spin= Alpha
 Occup=    0.00000
   1                     0
   2                     0
   3           -1.2108e-10
   4            6.1879e-10
   5                     0
   6           -1.3605e-10
   7          -4.84126e-10
   8          -1.14524e-10
   9          -7.95903e-10
  10           1.23353e-10
  11               1.02406
  12          -3.43646e-09
  13           2.72678e-10
  14          -5.63099e-10
  15           5.16374e-10
  16           1.48413e-10
  17                     0
  18                     0
  19              -0.29013
  20          -4.51916e-10
  21          -1.23684e-10
  22            1.2582e-10
  23           1.67448e-10
  24               0.29013
 Sym= A
 Ene=           3.325
 Spin= Alpha
 Occup=    0.00000
   1            -0.0593816
   2             -0.115568
   3              0.265325
   4           4.18521e-10
   5            -0.0605945
   6          -2.67245e-10
   7                     0
   8              0.344322
   9           4.04708e-10
  10             -0.296268
  11           2.95418e-10
  12           1.57949e-09
  13             -0.992501
  14          -1.26322e-10
  15             -0.146869
  16            -0.0129904
  17              0.260755
  18             -0.269949
  19          -6.33718e-10
  20             -0.146869
  21            -0.0129904
  22             -0.260755
  23             -0.269949
  24          -4.63792e-10
 Sym= A
 Ene=         3.73295
 Spin= Alpha
 Occup=    0.00000
   1              -0.29952
   2             -0.516267
   3               1.84731
   4          -3.65161e-10
   5              0.173308
   6          -6.32547e-10
   7           4.74791e-10
   8              0.823563
   9                     0
  10              -1.05244
  11                     0
  12          -1.68371e-10
  13              0.354138
  14           1.14076e-09
  15             -0.839951
  16              -0.18124
  17              0.572119
  18              0.394503
  19                     0
  20             -0.839951
  21              -0.18124
  22             -0.572119
  23              0.394503
  24                     0
 Sym= A
 Ene=         3.98958
 Spin= Alpha
 Occup=    0.00000
   1           1.87254e-10
   2           2.04181e-10
   3          -1.78134e-09
   4              0.193281
   5           -7.1048e-10
   6                     0
   7              0.961731
   8          -6.53227e-10
   9                     0
  10           7.78507e-10
  11            4.5323e-10
  12                     0
  13          -3.37832e-10
  14               1.24186
  15             -0.701319
  16             -0.247769
  17              0.503092
  18               0.44137
  19                     0
  20              0.701319
  21              0.247769
  22              0.503092
  23              -0.44137
  24                     0
